 Output coordinates in angstroms (scale by  1.889725989 to convert to a.u.)

  No.       Tag          Charge          X              Y              Z
 ---- ---------------- ---------- -------------- -------------- --------------
    1 O                    8.0000     0.00000000     0.00000000     0.20187565
    2 H                    1.0000    -1.48374995     0.00000000    -0.80751304
    3 H                    1.0000     1.48374995     0.00000000    -0.80751304

         Total SCF energy =    -75.632781341566

 Vector    2  Occ=2.000000D+00  E=-1.198305D+00

 Vector    3  Occ=2.000000D+00  E=-5.045146D-01

 Vector    4  Occ=2.000000D+00  E=-4.478881D-01

 Vector    5  Occ=2.000000D+00  E=-4.350687D-01

 Vector    6  Occ=0.000000D+00  E=-1.303945D-02

 Vector    7  Occ=0.000000D+00  E= 4.501027D-02

 Vector    8  Occ=0.000000D+00  E= 9.423840D-01

 Vector    9  Occ=0.000000D+00  E= 9.978542D-01

 Vector   10  Occ=0.000000D+00  E= 1.160068D+00

 Vector   11  Occ=0.000000D+00  E= 1.226316D+00

 Vector   12  Occ=0.000000D+00  E= 1.307803D+00

 Vector   13  Occ=0.000000D+00  E= 1.388105D+00

         Total SCF energy =    -75.630353564670

 Vector    2  Occ=2.000000D+00  E=-1.198305D+00

 Vector    3  Occ=2.000000D+00  E=-5.045146D-01

 Vector    4  Occ=2.000000D+00  E=-4.478881D-01

 Vector    5  Occ=2.000000D+00  E=-4.350687D-01

 Vector    6  Occ=0.000000D+00  E=-1.303945D-02

 Vector    7  Occ=0.000000D+00  E= 4.501027D-02

 Vector    8  Occ=0.000000D+00  E= 9.423840D-01

 Vector    9  Occ=0.000000D+00  E= 9.978542D-01

 Vector   10  Occ=0.000000D+00  E= 1.160068D+00

 Vector   11  Occ=0.000000D+00  E= 1.226316D+00

 Vector   12  Occ=0.000000D+00  E= 1.307803D+00

 Vector   13  Occ=0.000000D+00  E= 1.388105D+00

       Multipole analysis of the density wrt the origin
       ------------------------------------------------

     L   x y z        total         open         nuclear
     -   - - -        -----         ----         -------
     0   0 0 0     -0.000000      0.000000     10.000000

     1   1 0 0      0.000000      0.000000      0.000000
     1   0 1 0     -0.000000      0.000000      0.000000
     1   0 0 1     -0.848865      0.000000     -0.000039

     2   2 0 0     -1.460093      0.000000     15.723496
     2   1 1 0     -0.000000      0.000000      0.000000
     2   1 0 1     -0.000000      0.000000      0.000000
     2   0 2 0     -6.260836      0.000000      0.000000
     2   0 1 1      0.000000      0.000000      0.000000

 Total times  cpu:        0.4s     wall:        4.4s
